<?xml version="1.0" encoding="UTF-8"?>

<!-- generated on 2025-05-07 20:54:10 by Eclipse SUMO sumo Version 1.22.0
<sumoConfiguration xmlns:xsi="http://www.w3.org/2001/XMLSchema-instance" xsi:noNamespaceSchemaLocation="http://sumo.dlr.de/xsd/sumoConfiguration.xsd">

    <input>
        <net-file value="E:\SUMO\tools\2025-05-07-20-53-58\osm.net.xml.gz"/>
        <route-files value="E:\SUMO\tools\2025-05-07-20-53-58\trips.trips.xml"/>
        <additional-files value="E:\SUMO\tools\2025-05-07-20-53-58\osm_stops.add.xml"/>
    </input>

    <output>
        <vehroute-output value="E:\SUMO\tools\2025-05-07-20-53-58\vehroutes.xml"/>
        <stop-output value="E:\SUMO\tools\2025-05-07-20-53-58\stopinfos.xml"/>
    </output>

    <time>
        <begin value="0.0"/>
    </time>

    <processing>
        <ignore-route-errors value="true"/>
    </processing>

    <routing>
        <device.rerouting.adaptation-interval value="0"/>
    </routing>

    <report>
        <aggregate-warnings value="5"/>
        <error-log value="E:\SUMO\tools\2025-05-07-20-53-58\trips.trips.xml.errorlog"/>
        <no-step-log value="true"/>
    </report>

</sumoConfiguration>
-->

<routes xmlns:xsi="http://www.w3.org/2001/XMLSchema-instance" xsi:noNamespaceSchemaLocation="http://sumo.dlr.de/xsd/routes_file.xsd">
    <vehicle id="3_train_50:0" type="pt_train" depart="131.00" departLane="0" arrival="162.00">
        <route edges="273358244"/>
        <stop busStop="6436451255" duration="30.00"/>
    </vehicle>

    <vehicle id="4_train_50:1" type="pt_train" depart="162.00" departLane="0" arrival="193.00">
        <route edges="273358244"/>
        <stop busStop="6436451255" duration="30.00"/>
    </vehicle>

    <vehicle id="5_train_F5:0" type="pt_train" depart="165.00" departLane="0" arrival="232.00">
        <route edges="41973980#0 41973980#1"/>
        <stop busStop="5594450719" duration="30.00"/>
    </vehicle>

    <vehicle id="6_train_F5:1" type="pt_train" depart="253.00" departLane="0" arrival="320.00">
        <route edges="41973980#0 41973980#1"/>
        <stop busStop="5594450719" duration="30.00"/>
    </vehicle>

    <vehicle id="7_train_F5:2" type="pt_train" depart="383.00" departLane="0" arrival="414.00">
        <route edges="686689403"/>
        <stop busStop="6009935309" duration="30.00"/>
    </vehicle>

    <vehicle id="8_train_F5:3" type="pt_train" depart="414.00" departLane="0" arrival="445.00">
        <route edges="686689403"/>
        <stop busStop="6009935309" duration="30.00"/>
    </vehicle>

    <vehicle id="9_train_F5:4" type="pt_train" depart="445.00" departLane="0" arrival="476.00">
        <route edges="686689403"/>
        <stop busStop="6009935309" duration="30.00"/>
    </vehicle>

    <vehicle id="10_train_F5:5" type="pt_train" depart="535.00" departLane="0" arrival="566.00">
        <route edges="686689403"/>
        <stop busStop="6009935309" duration="30.00"/>
    </vehicle>

</routes>
